formula,atomic_volume,band_gap,outer_electron,diff_electroneg,spacegroup,band_gap.is_direct
SiF4,17.49546968,7.7173,11,2.08,-43m,0
YbS,22.71082027,2.2234,20,1.48,m-3m,0
WSe2,24.07609824,1.4919,18,0.19,6/mmm,0
TlSe,30.4940048,0.2497,25,0.93,4/mmm,0
Tm2S3,24.682521,2.2738,19,1.33,m-3,1
ZnF2,12.24340784,3.48,17,2.33,4/mmm,1
TeF6,17.28423391,4.3688,21,1.88,mmm,1
SbF3,17.5270352,4.4381,20,1.93,mm2,0
SrTe,38.00334326,1.7736,16,1.15,m-3m,0
TePb,35.37919596,0.8674,26,0.23,m-3m,1
ZrSe2,27.94292368,0.3357,16,1.22,-3m,0
Si5Ir3,15.10257695,0.9339,11,0.3,2/m,0
Er2Se3,28.53888802,0.851,26,1.31,mmm,1
Sb2Se3,29.86705672,0.7672,27,0.5,mmm,0
SnSe,27.70143742,0.3197,26,0.59,mmm,0
ZnTe,29.57280169,1.029,24,0.45,-43m,1
PbSe,30.12685525,0.4728,26,0.22,m-3m,1
SnS,25.54703242,0.9478,18,0.62,mmm,0
Bi2S3,26.35830001,1.3813,19,0.56,mmm,0
ZrCl3,32.01264243,0.1588,9,1.83,6/mmm,0
SbCl3,36.02420408,3.7419,20,1.11,mmm,0
VCl2,23.4742519,1.2311,10,1.53,-3m,0
ZnCl2,28.20264247,4.04,17,1.51,mm2,1
ZnCl2,27.38431017,4.0499,17,1.51,-42m,1
ZrCl2,23.27325239,0.8614,9,1.83,3m,0
Bi2Se3,30.30484364,0.9706,27,0.53,mmm,1
SbCl5,39.05834176,1.8233,20,1.11,6/mmm,1
SrI2,43.42391015,3.8416,17,1.71,mmm,0
SnI4,59.58361815,2.0284,27,0.7,m-3,1
SrCl2,29.16576363,5.2286,9,2.21,m-3m,0
TiI3,40.81039227,0.1682,17,1.12,mmm,0
TeI,44.54099454,0.7943,29,0.56,-1,0
SbI3,48.58679942,2.1496,28,0.61,-3,0
ScCl3,29.40055064,3.8701,8,1.8,-3,0
SrH2,14.95415925,3.1308,3,1.25,mmm,0
SiH4,14.46509517,6.5621,5,0.3,2/m,1
SrH2,14.02641233,1.3337,3,1.25,6/mmm,0
Th2Se5,24.75614258,0.69,16,1.25,mmm,0
YF3,12.67627333,7.5338,8,2.76,mmm,0
SiOs,13.77309525,0.5177,10,0.3,23,0
SnSe,27.89228266,0.1142,26,0.59,m-3m,1
Sb2Os,22.05855294,0.3801,19,0.15,mmm,0
SnF4,14.46927183,3.1001,19,2.02,4/mmm,0
ZnI2,43.65769678,2.9076,25,1.01,4/mmm,1
Si3Cl8,34.75512741,4.7516,11,1.26,-43m,0
SnI2,41.49167718,1.7219,27,0.7,2/m,0
VF5,15.52510863,2.992,10,2.35,mmm,0
YCl3,35.25142128,4.9362,8,1.94,2/m,0
SrSe,31.31321246,2.231,16,1.6,m-3m,0
Te3Cl2,34.53304015,1.3332,21,1.06,2/m,0
Te2I,41.83188242,0.6558,29,0.56,mmm,1
Y2Cl3,27.49153785,0.7778,8,1.94,2/m,0
TcCl4,31.37979501,0.7829,12,1.26,mmm,0
AuSe,27.85865022,0.2674,23,0.01,2/m,0
Sb2F7,16.60898031,3.8096,20,1.93,2/m,0
SCl,35.24606659,2.8901,13,0.58,mm2,0
Sb4F15,16.50377313,3.6879,20,1.93,mm2,0
V2Se9,27.92871438,0.7208,17,0.92,2/m,0
Lu2S3,23.9011391,2.5673,21,1.31,-3m,0
Sb11F43,16.46716908,3.5093,20,1.93,2/m,0
SiCl4,36.44076184,5.5541,11,1.26,2/m,0
SnF2,19.33475774,3.2925,19,2.02,2/m,1
YbSe,25.87967578,1.9741,28,1.45,m-3m,0
TiF4,15.18556638,4.166,9,2.44,mmm,0
SiI3,51.98154981,2.8504,19,0.76,mmm,1
SeF4,17.23247691,4.1353,21,1.43,222,0
SnCl2,29.41019395,3.0512,19,1.2,2/m,0
Sb7F29,16.61106593,3.595,20,1.93,2/m,0
Tl2Te3,35.11269671,0.6319,25,0.48,2/m,0
SiH,18.91488561,2.1427,5,0.3,-3m,0
Sm10Se19,24.86878891,0.2589,20,1.38,4/m,0
SnCl4,41.53737907,3.551,19,1.2,2/m,0
TiCl4,40.47298533,3.4577,9,1.62,2/m,0
Si19Te8,21.77828875,0.8866,18,0.2,3m,0
Bi2Te3,35.60656733,0.5268,27,0.08,-3m,1
ZnSe,23.70110833,1.2004,24,0.9,6mm,1
Sc2S3,21.51851401,0.7843,7,1.22,mmm,0
SeCl,37.02300601,2.1674,21,0.61,2/m,0
BS2,26.65194094,2.5545,17,0.54,2/m,0
SeCl4,32.04528287,3.0391,21,0.61,2/m,0
TiI4,42.245569,1.0878,17,1.12,2/m,0
SiI2,49.30203444,2.2811,19,0.76,2/m,1
ZrI4,103.6179785,2.0534,17,1.33,-1,0
ReSe2,22.73528327,1.1315,19,0.65,-1,0
Bi2Se3,30.8213602,0.5434,27,0.53,-3m,1
ZnS,20.24596805,2.0265,16,0.93,3m,1
ZnS,20.25115815,2.0147,16,0.93,3m,1
ZnS,20.23799529,2.0175,16,0.93,3m,1
VF4,14.27700434,2.2417,10,2.35,2/m,0
ZnS,20.21261167,2.0385,16,0.93,3m,1
ZnS,20.24968019,2.0097,16,0.93,3m,1
PrS2,22.65306623,0.3681,9,1.45,2/m,0
ZnS,20.19155073,1.5973,16,0.93,3m,1
ZnS,20.24727773,2.025,16,0.93,3m,1
ZnS,20.24515797,2.0165,16,0.93,3m,1
ZnS,20.25256298,1.9961,16,0.93,3m,1
ZnS,20.2546963,2.0467,16,0.93,3m,1
ZnS,20.25558112,2.0251,16,0.93,3m,1
ZnS,20.23382103,2.0379,16,0.93,3m,1
ZnS,20.25243863,2.0157,16,0.93,3m,1
ZnS,20.25552259,2.029,16,0.93,3m,1
ZnS,20.23449361,2.0362,16,0.93,3m,1
ZnS,20.25659048,1.9438,16,0.93,3m,1
SbF4,16.64584831,3.4408,20,1.93,2/m,0
ZnS,20.24034847,1.1961,16,0.93,3m,1
ZnS,20.25242605,2.0181,16,0.93,3m,1
ZnS,20.24021673,2.0399,16,0.93,3m,1
ZnS,20.2395661,2.0418,16,0.93,3m,1
ZnS,20.25731319,2.0314,16,0.93,3m,1
ZnS,20.25630052,2.0109,16,0.93,3m,1
ScF3,16.83902658,6.0487,8,2.62,32,0
VF3,13.85767413,1.5498,10,2.35,-3m,1
ZnS,20.25459684,2.0215,16,0.93,6mm,1
ZnS,20.24518982,2.0338,16,0.93,6mm,1
ZnS,20.25230686,2.0288,16,0.93,6mm,1
ZnS,20.24907854,2.0218,16,0.93,6mm,1
Pr10S19,22.98809531,0.5107,9,1.45,4/m,1
ZrF4,12.69799262,4.8934,9,2.65,4/m,1
TeF4,17.05750535,4.0193,21,1.88,222,0
TeI4,49.93465121,1.8301,29,0.56,mm2,0
ZnCl2,27.45336604,3.8763,17,1.51,4/mmm,1
TeI4,48.97005694,1.7864,29,0.56,4/mmm,0
SiSe2,35.64316054,2.1632,18,0.65,mmm,0
SrI2,44.54187952,3.8014,17,1.71,mmm,1
SiB3,10.25453227,1.4083,15,0.14,mmm,0
SnCl2,29.35471476,3.0724,19,1.2,mmm,0
ZrCl4,31.49689165,3.6106,9,1.83,2/m,0
SbI3,48.50951422,2.1951,28,0.61,2/m,0
TeCl4,35.70795038,3.1084,21,1.06,2/m,0
TeI,42.92846404,0.7224,29,0.56,2/m,0
ZrI2,35.66150771,0.2939,17,1.33,mm2,0
LaSe2,26.38145309,0.2785,15,1.45,2/m,0
Zn13Sb10,24.18803845,0.4715,23,0.4,-1,0
SbCl5,34.6935386,1.7221,20,1.11,2/m,1
TeI4,49.00250483,1.7639,29,0.56,mmm,1
ZnTe,29.54273859,1.069,24,0.45,3,1
ZrI4,47.73271119,2.0148,17,1.33,2/m,0
ZrI2,35.43117343,0.2751,17,1.33,2/m,0
SnI4,59.78779173,1.5624,27,0.7,-43m,0
YI3,48.59633614,3.0409,16,1.44,-3,0
Pr13Zn58,18.59495231,0.1563,13,0.52,6/mmm,1
ZnCl2,27.94305074,4.0185,17,1.51,2/m,1
B2S3,23.65929258,2.4329,17,0.54,2/m,0
Tl2Te,35.76516413,0.6483,25,0.48,2/m,1
Re2Te5,31.16868536,0.6053,19,0.2,mmm,1
ZrTe5,37.06522715,0.1192,16,0.77,mmm,0
SiI4,55.19489871,2.8561,19,0.76,m-3,1
ZnS,20.260609,1.9999,16,0.93,3m,1
TeI4,47.62526262,1.708,29,0.56,2/m,0
SnSe2,29.90300434,0.703,26,0.59,-3m,0
SeCl4,30.39241465,2.855,21,0.61,-43m,1
Tl2Te3,36.92263308,0.4849,25,0.48,m,0
SnSe,28.13143687,0.5616,26,0.59,mmm,0
H2S,15.86123539,4.329,7,0.38,mmm,0
Dy2Se3,24.73675226,0.3633,24,1.33,mmm,1
SnF2,19.30653232,3.2629,19,2.02,222,0
SnF2,19.35736583,3.2522,19,2.02,422,0
ZnF2,12.04411001,3.5618,17,2.33,mmm,0
ThSe2,25.84200573,0.6305,16,1.25,mmm,1
SnF3,21.30234587,2.7786,19,2.02,m-3m,0
SnS,48.67760045,1.4747,18,0.62,mm2,1
La10Se19,26.82154008,0.5697,15,1.45,4/m,0
ZnTe,29.62200708,1.1007,24,0.45,6mm,1
SnSe,56.4230313,0.8549,26,0.59,4/mmm,1
HgS,27.61428844,1.6835,16,0.58,32,0
Au2S,25.48056354,1.9021,15,0.04,m-3m,1
BiS2,25.10266587,1.0487,19,0.56,2/m,0
SiH8,13.15639984,6.9799,5,0.3,-42m,0
Sr2Sn,38.62735452,0.1558,14,1.01,mmm,1
SrF2,16.81985605,6.7528,9,3.03,m-3m,0
Ho2Se3,28.92932559,0.8479,25,1.32,mmm,1
HfSe2,28.48053442,0.5594,16,1.25,-3m,0
TiS3,20.33561976,0.2318,8,1.04,2/m,0
ZrS3,23.03685644,1.0991,8,1.25,2/m,0